# vtk DataFile Version 2.0
generated by CFD-lab course output (written by Tobias Neckel) 
ASCII

DATASET STRUCTURED_GRID
DIMENSIONS  501 101 1 
POINTS 50601 float

0.000000 0.000000 0
0.020000 0.000000 0
0.040000 0.000000 0
0.060000 0.000000 0
0.080000 0.000000 0
0.100000 0.000000 0
0.120000 0.000000 0
0.140000 0.000000 0
0.160000 0.000000 0
0.180000 0.000000 0
0.200000 0.000000 0
0.220000 0.000000 0
0.240000 0.000000 0
0.260000 0.000000 0
0.280000 0.000000 0
0.300000 0.000000 0
0.320000 0.000000 0
0.340000 0.000000 0
0.360000 0.000000 0
0.380000 0.000000 0
0.400000 0.000000 0
0.420000 0.000000 0
0.440000 0.000000 0
0.460000 0.000000 0
0.480000 0.000000 0
0.500000 0.000000 0
0.520000 0.000000 0
0.540000 0.000000 0
0.560000 0.000000 0
0.580000 0.000000 0
0.600000 0.000000 0
0.620000 0.000000 0
0.640000 0.000000 0
0.660000 0.000000 0
0.680000 0.000000 0
0.700000 0.000000 0
0.720000 0.000000 0
0.740000 0.000000 0
0.760000 0.000000 0
0.780000 0.000000 0
0.800000 0.000000 0
0.820000 0.000000 0
0.840000 0.000000 0
0.860000 0.000000 0
0.880000 0.000000 0
0.900000 0.000000 0
0.920000 0.000000 0
0.940000 0.000000 0
0.960000 0.000000 0
0.980000 0.000000 0
1.000000 0.000000 0
1.020000 0.000000 0
1.040000 0.000000 0
1.060000 0.000000 0
1.080000 0.000000 0
1.100000 0.000000 0
1.120000 0.000000 0
1.140000 0.000000 0
1.160000 0.000000 0
1.180000 0.000000 0
1.200000 0.000000 0
1.220000 0.000000 0
1.240000 0.000000 0
1.260000 0.000000 0
1.280000 0.000000 0
1.300000 0.000000 0
1.320000 0.000000 0
1.340000 0.000000 0
1.360000 0.000000 0
1.380000 0.000000 0
1.400000 0.000000 0
1.420000 0.000000 0
1.440000 0.000000 0
1.460000 0.000000 0
1.480000 0.000000 0
1.500000 0.000000 0
1.520000 0.000000 0
1.540000 0.000000 0
1.560000 0.000000 0
1.580000 0.000000 0
1.600000 0.000000 0
1.620000 0.000000 0
1.640000 0.000000 0
1.660000 0.000000 0
1.680000 0.000000 0
1.700000 0.000000 0
1.720000 0.000000 0
1.740000 0.000000 0
1.760000 0.000000 0
1.780000 0.000000 0
1.800000 0.000000 0
1.820000 0.000000 0
1.840000 0.000000 0
1.860000 0.000000 0
1.880000 0.000000 0
1.900000 0.000000 0
1.920000 0.000000 0
1.940000 0.000000 0
1.960000 0.000000 0
1.980000 0.000000 0
2.000000 0.000000 0
2.020000 0.000000 0
2.040000 0.000000 0
2.060000 0.000000 0
2.080000 0.000000 0
2.100000 0.000000 0
2.120000 0.000000 0
2.140000 0.000000 0
2.160000 0.000000 0
2.180000 0.000000 0
2.200000 0.000000 0
2.220000 0.000000 0
2.240000 0.000000 0
2.260000 0.000000 0
2.280000 0.000000 0
2.300000 0.000000 0
2.320000 0.000000 0
2.340000 0.000000 0
2.360000 0.000000 0
2.380000 0.000000 0
2.400000 0.000000 0
2.420000 0.000000 0
2.440000 0.000000 0
2.460000 0.000000 0
2.480000 0.000000 0
2.500000 0.000000 0
2.520000 0.000000 0
2.540000 0.000000 0
2.560000 0.000000 0
2.580000 0.000000 0
2.600000 0.000000 0
2.620000 0.000000 0
2.640000 0.000000 0
2.660000 0.000000 0
2.680000 0.000000 0
2.700000 0.000000 0
2.720000 0.000000 0
2.740000 0.000000 0
2.760000 0.000000 0
2.780000 0.000000 0
2.800000 0.000000 0
2.820000 0.000000 0
2.840000 0.000000 0
2.860000 0.000000 0
2.880000 0.000000 0
2.900000 0.000000 0
2.920000 0.000000 0
2.940000 0.000000 0
2.960000 0.000000 0
2.980000 0.000000 0
3.000000 0.000000 0
3.020000 0.000000 0
3.040000 0.000000 0
3.060000 0.000000 0
3.080000 0.000000 0
3.100000 0.000000 0
3.120000 0.000000 0
3.140000 0.000000 0
3.160000 0.000000 0
3.180000 0.000000 0
3.200000 0.000000 0
3.220000 0.000000 0
3.240000 0.000000 0
3.260000 0.000000 0
3.280000 0.000000 0
3.300000 0.000000 0
3.320000 0.000000 0
3.340000 0.000000 0
3.360000 0.000000 0
3.380000 0.000000 0
3.400000 0.000000 0
3.420000 0.000000 0
3.440000 0.000000 0
3.460000 0.000000 0
3.480000 0.000000 0
3.500000 0.000000 0
3.520000 0.000000 0
3.540000 0.000000 0
3.560000 0.000000 0
3.580000 0.000000 0
3.600000 0.000000 0
3.620000 0.000000 0
3.640000 0.000000 0
3.660000 0.000000 0
3.680000 0.000000 0
3.700000 0.000000 0
3.720000 0.000000 0
3.740000 0.000000 0
3.760000 0.000000 0
3.780000 0.000000 0
3.800000 0.000000 0
3.820000 0.000000 0
3.840000 0.000000 0
3.860000 0.000000 0
3.880000 0.000000 0
3.900000 0.000000 0
3.920000 0.000000 0
3.940000 0.000000 0
3.960000 0.000000 0
3.980000 0.000000 0
4.000000 0.000000 0
4.020000 0.000000 0
4.040000 0.000000 0
4.060000 0.000000 0
4.080000 0.000000 0
4.100000 0.000000 0
4.120000 0.000000 0
4.140000 0.000000 0
4.160000 0.000000 0
4.180000 0.000000 0
4.200000 0.000000 0
4.220000 0.000000 0
4.240000 0.000000 0
4.260000 0.000000 0
4.280000 0.000000 0
4.300000 0.000000 0
4.320000 0.000000 0
4.340000 0.000000 0
4.360000 0.000000 0
4.380000 0.000000 0
4.400000 0.000000 0
4.420000 0.000000 0
4.440000 0.000000 0
4.460000 0.000000 0
4.480000 0.000000 0
4.500000 0.000000 0
4.520000 0.000000 0
4.540000 0.000000 0
4.560000 0.000000 0
4.580000 0.000000 0
4.600000 0.000000 0
4.620000 0.000000 0
4.640000 0.000000 0
4.660000 0.000000 0
4.680000 0.000000 0
4.700000 0.000000 0
4.720000 0.000000 0
4.740000 0.000000 0
4.760000 0.000000 0
4.780000 0.000000 0
4.800000 0.000000 0
4.820000 0.000000 0
4.840000 0.000000 0
4.860000 0.000000 0
4.880000 0.000000 0
4.900000 0.000000 0
4.920000 0.000000 0
4.940000 0.000000 0
4.960000 0.000000 0
4.980000 0.000000 0
5.000000 0.000000 0
5.020000 0.000000 0
5.040000 0.000000 0
5.060000 0.000000 0
5.080000 0.000000 0
5.100000 0.000000 0
5.120000 0.000000 0
5.140000 0.000000 0
5.160000 0.000000 0
5.180000 0.000000 0
5.200000 0.000000 0
5.220000 0.000000 0
5.240000 0.000000 0
5.260000 0.000000 0
5.280000 0.000000 0
5.300000 0.000000 0
5.320000 0.000000 0
5.340000 0.000000 0
5.360000 0.000000 0
5.380000 0.000000 0
5.400000 0.000000 0
5.420000 0.000000 0
5.440000 0.000000 0
5.460000 0.000000 0
5.480000 0.000000 0
5.500000 0.000000 0
5.520000 0.000000 0
5.540000 0.000000 0
5.560000 0.000000 0
5.580000 0.000000 0
5.600000 0.000000 0
5.620000 0.000000 0
5.640000 0.000000 0
5.660000 0.000000 0
5.680000 0.000000 0
5.700000 0.000000 0
5.720000 0.000000 0
5.740000 0.000000 0
5.760000 0.000000 0
5.780000 0.000000 0
5.800000 0.000000 0
5.820000 0.000000 0
5.840000 0.000000 0
5.860000 0.000000 0
5.880000 0.000000 0
5.900000 0.000000 0
5.920000 0.000000 0
5.940000 0.000000 0
5.960000 0.000000 0
5.980000 0.000000 0
6.000000 0.000000 0
6.020000 0.000000 0
6.040000 0.000000 0
6.060000 0.000000 0
6.080000 0.000000 0
6.100000 0.000000 0
6.120000 0.000000 0
6.140000 0.000000 0
6.160000 0.000000 0
6.180000 0.000000 0
6.200000 0.000000 0
6.220000 0.000000 0
6.240000 0.000000 0
6.260000 0.000000 0
6.280000 0.000000 0
6.300000 0.000000 0
6.320000 0.000000 0
6.340000 0.000000 0
6.360000 0.000000 0
6.380000 0.000000 0
6.400000 0.000000 0
6.420000 0.000000 0
6.440000 0.000000 0
6.460000 0.000000 0
6.480000 0.000000 0
6.500000 0.000000 0
6.520000 0.000000 0
6.540000 0.000000 0
6.560000 0.000000 0
6.580000 0.000000 0
6.600000 0.000000 0
6.620000 0.000000 0
6.640000 0.000000 0
6.660000 0.000000 0
6.680000 0.000000 0
6.700000 0.000000 0
6.720000 0.000000 0
6.740000 0.000000 0
6.760000 0.000000 0
6.780000 0.000000 0
6.800000 0.000000 0
6.820000 0.000000 0
6.840000 0.000000 0
6.860000 0.000000 0
6.880000 0.000000 0
6.900000 0.000000 0
6.920000 0.000000 0
6.940000 0.000000 0
6.960000 0.000000 0
6.980000 0.000000 0
7.000000 0.000000 0
7.020000 0.000000 0
7.040000 0.000000 0
7.060000 0.000000 0
7.080000 0.000000 0
7.100000 0.000000 0
7.120000 0.000000 0
7.140000 0.000000 0
7.160000 0.000000 0
7.180000 0.000000 0
7.200000 0.000000 0
7.220000 0.000000 0
7.240000 0.000000 0
7.260000 0.000000 0
7.280000 0.000000 0
7.300000 0.000000 0
7.320000 0.000000 0
7.340000 0.000000 0
7.360000 0.000000 0
7.380000 0.000000 0
7.400000 0.000000 0
7.420000 0.000000 0
7.440000 0.000000 0
7.460000 0.000000 0
7.480000 0.000000 0
7.500000 0.000000 0
7.520000 0.000000 0
7.540000 0.000000 0
7.560000 0.000000 0
7.580000 0.000000 0
7.600000 0.000000 0
7.620000 0.000000 0
7.640000 0.000000 0
7.660000 0.000000 0
7.680000 0.000000 0
7.700000 0.000000 0
7.720000 0.000000 0
7.740000 0.000000 0
7.760000 0.000000 0
7.780000 0.000000 0
7.800000 0.000000 0
7.820000 0.000000 0
7.840000 0.000000 0
7.860000 0.000000 0
7.880000 0.000000 0
7.900000 0.000000 0
7.920000 0.000000 0
7.940000 0.000000 0
7.960000 0.000000 0
7.980000 0.000000 0
8.000000 0.000000 0
8.020000 0.000000 0
8.040000 0.000000 0
8.060000 0.000000 0
8.080000 0.000000 0
8.100000 0.000000 0
8.120000 0.000000 0
8.140000 0.000000 0
8.160000 0.000000 0
8.180000 0.000000 0
8.200000 0.000000 0
8.220000 0.000000 0
8.240000 0.000000 0
8.260000 0.000000 0
8.280000 0.000000 0
8.300000 0.000000 0
8.320000 0.000000 0
8.340000 0.000000 0
8.360000 0.000000 0
8.380000 0.000000 0
8.400000 0.000000 0
8.420000 0.000000 0
8.440000 0.000000 0
8.460000 0.000000 0
8.480000 0.000000 0
8.500000 0.000000 0
8.520000 0.000000 0
8.540000 0.000000 0
8.560000 0.000000 0
8.580000 0.000000 0
8.600000 0.000000 0
8.620000 0.000000 0
8.640000 0.000000 0
8.660000 0.000000 0
8.680000 0.000000 0
8.700000 0.000000 0
8.720000 0.000000 0
8.740000 0.000000 0
8.760000 0.000000 0
8.780000 0.000000 0
8.800000 0.000000 0
8.820000 0.000000 0
8.840000 0.000000 0
8.860000 0.000000 0
8.880000 0.000000 0
8.900000 0.000000 0
8.920000 0.000000 0
8.940000 0.000000 0
8.960000 0.000000 0
8.980000 0.000000 0
9.000000 0.000000 0
9.020000 0.000000 0
9.040000 0.000000 0
9.060000 0.000000 0
9.080000 0.000000 0
9.100000 0.000000 0
9.120000 0.000000 0
9.140000 0.000000 0
9.160000 0.000000 0
9.180000 0.000000 0
9.200000 0.000000 0
9.220000 0.000000 0
9.240000 0.000000 0
9.260000 0.000000 0
9.280000 0.000000 0
9.300000 0.000000 0
9.320000 0.000000 0
9.340000 0.000000 0
9.360000 0.000000 0
9.380000 0.000000 0
9.400000 0.000000 0
9.420000 0.000000 0
9.440000 0.000000 0
9.460000 0.000000 0
9.480000 0.000000 0
9.500000 0.000000 0
9.520000 0.000000 0
9.540000 0.000000 0
9.560000 0.000000 0
9.580000 0.000000 0
9.600000 0.000000 0
9.620000 0.000000 0
9.640000 0.000000 0
9.660000 0.000000 0
9.680000 0.000000 0
9.700000 0.000000 0
9.720000 0.000000 0
9.740000 0.000000 0
9.760000 0.000000 0
9.780000 0.000000 0
9.800000 0.000000 0
[...]
POINT_DATA 50601 

VECTORS velocity float
0.000000 0.000000 0
0.000000 0.000000 0
0.000000 0.000000 0
0.000000 0.000000 0
0.000000 0.000000 0
0.000000 0.000000 0
0.000000 0.000000 0
0.000000 0.000000 0
0.000000 0.000000 0
0.000000 0.000000 0
0.000000 0.000000 0
0.000000 0.000000 0
0.000000 0.000000 0
0.000000 0.000000 0
0.000000 0.000000 0
0.000000 0.000000 0
0.000000 0.000000 0
0.000000 0.000000 0
0.000000 0.000000 0
0.000000 0.000000 0
0.000000 0.000000 0
0.000000 0.000000 0
0.000000 0.000000 0
0.000000 0.000000 0
0.000000 0.000000 0
0.000000 0.000000 0
0.000000 0.000000 0
0.000000 0.000000 0
0.000000 0.000000 0
0.000000 0.000000 0
0.000000 0.000000 0
0.000000 0.000000 0
0.000000 0.000000 0
0.000000 0.000000 0
0.000000 0.000000 0
0.000000 0.000000 0
0.000000 0.000000 0
0.000000 0.000000 0
0.000000 0.000000 0
0.000000 0.000000 0
0.000000 0.000000 0
0.000000 0.000000 0
0.000000 0.000000 0
0.000000 0.000000 0
0.000000 0.000000 0
0.000000 0.000000 0
0.000000 0.000000 0
0.000000 0.000000 0
0.000000 0.000000 0
0.000000 0.000000 0
0.000000 0.000000 0
-0.000000 0.000000 0
-0.000001 0.000000 0
-0.000001 0.000000 0
-0.000002 0.000000 0
-0.000003 0.000000 0
-0.000004 0.000000 0
-0.000004 0.000000 0
-0.000005 0.000000 0
-0.000006 0.000000 0
-0.000006 0.000000 0
-0.000007 0.000000 0
-0.000008 0.000000 0
-0.000008 0.000000 0
-0.000009 0.000000 0
-0.000009 0.000000 0
-0.000010 0.000000 0
-0.000011 0.000000 0
-0.000011 0.000000 0
-0.000011 0.000000 0
-0.000012 0.000000 0
-0.000012 0.000000 0
-0.000013 0.000000 0
-0.000013 0.000000 0
-0.000013 0.000000 0
-0.000014 0.000000 0
-0.000014 0.000000 0
-0.000014 0.000000 0
-0.000014 0.000000 0
-0.000014 0.000000 0
-0.000014 0.000000 0
-0.000015 0.000000 0
-0.000015 0.000000 0
-0.000015 0.000000 0
-0.000015 0.000000 0
-0.000014 0.000000 0
-0.000014 0.000000 0
-0.000014 0.000000 0
-0.000014 0.000000 0
-0.000014 0.000000 0
-0.000014 0.000000 0
-0.000013 0.000000 0
-0.000013 0.000000 0
-0.000013 0.000000 0
-0.000013 0.000000 0
-0.000012 0.000000 0
-0.000012 0.000000 0
-0.000012 0.000000 0
-0.000011 0.000000 0
-0.000011 0.000000 0
-0.000011 0.000000 0
-0.000010 0.000000 0
-0.000010 0.000000 0
-0.000010 0.000000 0
-0.000009 0.000000 0
-0.000009 0.000000 0
-0.000009 0.000000 0
-0.000008 0.000000 0
-0.000008 0.000000 0
-0.000008 0.000000 0
-0.000007 0.000000 0
-0.000007 0.000000 0
-0.000007 0.000000 0
-0.000006 0.000000 0
-0.000006 0.000000 0
-0.000006 0.000000 0
-0.000005 0.000000 0
-0.000005 0.000000 0
-0.000005 0.000000 0
-0.000005 0.000000 0
-0.000004 0.000000 0
-0.000004 0.000000 0
-0.000004 0.000000 0
-0.000004 0.000000 0
-0.000003 0.000000 0
-0.000003 0.000000 0
-0.000003 0.000000 0
-0.000003 0.000000 0
-0.000002 0.000000 0
-0.000002 0.000000 0
-0.000002 0.000000 0
-0.000002 0.000000 0
-0.000002 0.000000 0
-0.000002 0.000000 0
-0.000001 0.000000 0
-0.000001 0.000000 0
-0.000001 0.000000 0
-0.000001 0.000000 0
-0.000001 0.000000 0
-0.000001 0.000000 0
-0.000001 0.000000 0
-0.000001 0.000000 0
-0.000000 0.000000 0
-0.000000 0.000000 0
-0.000000 0.000000 0
-0.000000 0.000000 0
0.000000 0.000000 0
0.000000 0.000000 0
0.000000 0.000000 0
0.000000 0.000000 0
0.000000 0.000000 0
0.000000 0.000000 0
0.000001 0.000000 0
0.000001 0.000000 0
0.000001 0.000000 0
0.000001 0.000000 0
0.000001 0.000000 0
0.000001 0.000000 0
0.000001 0.000000 0
0.000001 0.000000 0
0.000001 0.000000 0
0.000001 0.000000 0
0.000001 0.000000 0
0.000001 0.000000 0
0.000001 0.000000 0
0.000001 0.000000 0
0.000001 0.000000 0
0.000001 0.000000 0
0.000001 0.000000 0
0.000001 0.000000 0
0.000001 0.000000 0
0.000001 0.000000 0
0.000001 0.000000 0
0.000002 0.000000 0
0.000002 0.000000 0
0.000002 0.000000 0
0.000002 0.000000 0
0.000002 0.000000 0
0.000002 0.000000 0
0.000002 0.000000 0
0.000002 0.000000 0
0.000002 0.000000 0
0.000002 0.000000 0
0.000002 0.000000 0
0.000002 0.000000 0
0.000002 0.000000 0
0.000002 0.000000 0
0.000002 0.000000 0
0.000002 0.000000 0
0.000002 0.000000 0
0.000002 0.000000 0
0.000002 0.000000 0
0.000002 0.000000 0
0.000002 0.000000 0
0.000002 0.000000 0
0.000002 0.000000 0
0.000002 0.000000 0
0.000002 0.000000 0
0.000002 0.000000 0
0.000002 0.000000 0
0.000002 0.000000 0
0.000002 0.000000 0
0.000002 0.000000 0
0.000002 0.000000 0
0.000002 0.000000 0
0.000002 0.000000 0
0.000002 0.000000 0
0.000002 0.000000 0
0.000002 0.000000 0
0.000002 0.000000 0
0.000002 0.000000 0
0.000002 0.000000 0
0.000002 0.000000 0
0.000002 0.000000 0
0.000002 0.000000 0
0.000002 0.000000 0
0.000002 0.000000 0
0.000002 0.000000 0
0.000002 0.000000 0
0.000002 0.000000 0
0.000002 0.000000 0
0.000002 0.000000 0
0.000002 0.000000 0
0.000002 0.000000 0
0.000002 0.000000 0
0.000002 0.000000 0
0.000002 0.000000 0
0.000002 0.000000 0
0.000002 0.000000 0
0.000002 0.000000 0
0.000002 0.000000 0
0.000002 0.000000 0
0.000002 0.000000 0
0.000002 0.000000 0
0.000002 0.000000 0
0.000002 0.000000 0
0.000002 0.000000 0
0.000002 0.000000 0
0.000002 0.000000 0
0.000002 0.000000 0
0.000002 0.000000 0
0.000002 0.000000 0
0.000002 0.000000 0
0.000002 0.000000 0
0.000002 0.000000 0
0.000002 0.000000 0
0.000002 0.000000 0
0.000002 0.000000 0
0.000002 0.000000 0
0.000002 0.000000 0
0.000002 0.000000 0
0.000002 0.000000 0
0.000002 0.000000 0
0.000002 0.000000 0
0.000002 0.000000 0
0.000002 0.000000 0
0.000002 0.000000 0
0.000002 0.000000 0
0.000002 0.000000 0
0.000002 0.000000 0
0.000002 0.000000 0
0.000002 0.000000 0
0.000002 0.000000 0
0.000002 0.000000 0
0.000002 0.000000 0
0.000002 0.000000 0
0.000002 0.000000 0
0.000002 0.000000 0
0.000002 0.000000 0
0.000002 0.000000 0
0.000002 0.000000 0
0.000002 0.000000 0
0.000002 0.000000 0
0.000002 0.000000 0
0.000002 0.000000 0
0.000002 0.000000 0
0.000002 0.000000 0
0.000002 0.000000 0
0.000002 0.000000 0
0.000002 0.000000 0
0.000002 0.000000 0
0.000002 0.000000 0
0.000002 0.000000 0
0.000002 0.000000 0
0.000002 0.000000 0
0.000002 0.000000 0
0.000002 0.000000 0
0.000002 0.000000 0
0.000002 0.000000 0
0.000002 0.000000 0
0.000002 0.000000 0
0.000002 0.000000 0
0.000002 0.000000 0
0.000002 0.000000 0
0.000002 0.000000 0
0.000002 0.000000 0
0.000002 0.000000 0
0.000002 0.000000 0
0.000002 0.000000 0
0.000002 0.000000 0
0.000002 0.000000 0
0.000002 0.000000 0
0.000002 0.000000 0
0.000002 0.000000 0
0.000002 0.000000 0
0.000002 0.000000 0
0.000002 0.000000 0
0.000002 0.000000 0
0.000002 0.000000 0
0.000002 0.000000 0
0.000002 0.000000 0
0.000002 0.000000 0
0.000002 0.000000 0
0.000002 0.000000 0
0.000002 0.000000 0
0.000002 0.000000 0
0.000002 0.000000 0
0.000002 0.000000 0
0.000002 0.000000 0
0.000002 0.000000 0
0.000002 0.000000 0
0.000002 0.000000 0
0.000002 0.000000 0
0.000002 0.000000 0
0.000002 0.000000 0
0.000002 0.000000 0
0.000002 0.000000 0
0.000002 0.000000 0
0.000002 0.000000 0
0.000002 0.000000 0
0.000002 0.000000 0
0.000002 0.000000 0
0.000002 0.000000 0
0.000002 0.000000 0
0.000002 0.000000 0
0.000002 0.000000 0
0.000002 0.000000 0
0.000002 0.000000 0
0.000002 0.000000 0
0.000002 0.000000 0
0.000002 0.000000 0
0.000002 0.000000 0
0.000002 0.000000 0
0.000002 0.000000 0
0.000002 0.000000 0
0.000002 0.000000 0
0.000002 0.000000 0
0.000002 0.000000 0
0.000002 0.000000 0
0.000002 0.000000 0
0.000002 0.000000 0
0.000002 0.000000 0
0.000002 0.000000 0
0.000002 0.000000 0
0.000002 0.000000 0
0.000002 0.000000 0
0.000002 0.000000 0
0.000002 0.000000 0
0.000002 0.000000 0
0.000002 0.000000 0
0.000002 0.000000 0
0.000002 0.000000 0
0.000002 0.000000 0
0.000002 0.000000 0
0.000002 0.000000 0
0.000002 0.000000 0
0.000002 0.000000 0
0.000002 0.000000 0
0.000002 0.000000 0
0.000002 0.000000 0
0.000002 0.000000 0
0.000002 0.000000 0
0.000002 0.000000 0
0.000002 0.000000 0
0.000002 0.000000 0
0.000002 0.000000 0
0.000002 0.000000 0
0.000002 0.000000 0
0.000002 0.000000 0
0.000002 0.000000 0
0.000002 0.000000 0
0.000002 0.000000 0
0.000002 0.000000 0
0.000002 0.000000 0
0.000002 0.000000 0
0.000002 0.000000 0
0.000002 0.000000 0
0.000002 0.000000 0
0.000002 0.000000 0
0.000002 0.000000 0
0.000002 0.000000 0
0.000002 0.000000 0
0.000002 0.000000 0
0.000002 0.000000 0
0.000002 0.000000 0
0.000002 0.000000 0
0.000002 0.000000 0
0.000002 0.000000 0
0.000002 0.000000 0
0.000002 0.000000 0
0.000002 0.000000 0
0.000002 0.000000 0
0.000002 0.000000 0
0.000002 0.000000 0
0.000002 0.000000 0
0.000002 0.000000 0
0.000002 0.000000 0
0.000002 0.000000 0
0.000002 0.000000 0
0.000002 0.000000 0
0.000002 0.000000 0
0.000002 0.000000 0
0.000002 0.000000 0
0.000002 0.000000 0
0.000002 0.000000 0
0.000002 0.000000 0
0.000002 0.000000 0
0.000002 0.000000 0
0.000002 0.000000 0
0.000002 0.000000 0
0.000002 0.000000 0
0.000002 0.000000 0
0.000002 0.000000 0
0.000002 0.000000 0
0.000002 0.000000 0
0.000002 0.000000 0
0.000002 0.000000 0
0.000002 0.000000 0
0.000002 0.000000 0
0.000002 0.000000 0
0.000002 0.000000 0
0.000002 0.000000 0
0.000002 0.000000 0
0.000002 0.000000 0
0.000002 0.000000 0
0.000002 0.000000 0
0.000002 0.000000 0
0.000002 0.000000 0
0.000002 0.000000 0
0.000002 0.000000 0
0.000002 0.000000 0
0.000002 0.000000 0
0.000002 0.000000 0
0.000002 0.000000 0
0.000002 0.000000 0
0.000002 0.000000 0
0.000002 0.000000 0
0.000002 0.000000 0
0.000002 0.000000 0
0.000002 0.000000 0
0.000002 0.000000 0
0.000002 0.000000 0
0.000002 0.000000 0
0.000002 0.000000 0
0.000002 0.000000 0
0.000002 0.000000 0
0.000002 0.000000 0
0.000002 0.000000 0
0.000002 0.000000 0
0.000002 0.000000 0
0.000002 0.000000 0
0.000002 0.000000 0
0.000002 0.000000 0
0.000002 0.000000 0
0.000002 0.000000 0
0.000002 0.000000 0
0.000002 0.000000 0
0.000002 0.000000 0
0.000002 0.000000 0
0.000002 0.000000 0
0.000002 0.000000 0
0.000002 0.000000 0
0.000002 0.000000 0
0.000002 0.000000 0
0.000002 0.000000 0
0.000002 0.000000 0
0.000002 0.000000 0
0.000002 0.000000 0
0.000002 0.000000 0
0.000002 0.000000 0
0.000002 0.000000 0
0.000002 0.000000 0
0.000002 0.000000 0
0.000002 0.000000 0
0.000002 0.000000 0
0.000002 0.000000 0
0.000002 0.000000 0
0.000002 0.000000 0
0.000002 0.000000 0
0.000002 0.000000 0
0.000002 0.000000 0
0.000002 0.000000 0
0.000002 0.000000 0
0.000002 0.000000 0
0.000002 0.000000 0
0.000002 0.000000 0
0.000002 0.000000 0
0.000002 0.000000 0
0.000002 0.000000 0
0.000002 0.000000 0
0.000000 0.000000 0
0.000000 0.000000 0
0.000000 0.000000 0
0.000000 0.000000 0
0.000000 0.000000 0
0.000000 0.000000 0
0.000000 0.000000 0
0.000000 0.000000 0
0.000000 0.000000 0
0.000000 0.000000 0
0.000000 0.000000 0
0.000000 0.000000 0
0.000000 0.000000 0
0.000000 0.000000 0
0.000000 0.000000 0
0.000000 0.000000 0
0.000000 0.000000 0
0.000000 0.000000 0
0.000000 0.000000 0
0.000000 0.000000 0
0.000000 0.000000 0
0.000000 0.000000 0
0.000000 0.000000 0
0.000000 0.000000 0
0.000000 0.000000 0
0.000000 0.000000 0
0.000000 0.000000 0
0.000000 0.000000 0
0.000000 0.000000 0
0.000000 0.000000 0
0.000000 0.000000 0
0.000000 0.000000 0
0.000000 0.000000 0
0.000000 0.000000 0
0.000000 0.000000 0
0.000000 0.000000 0
0.000000 0.000000 0
0.000000 0.000000 0
0.000000 0.000000 0
0.000000 0.000000 0
0.000000 0.000000 0
0.000000 0.000000 0
0.000000 0.000000 0
0.000000 0.000000 0
0.000000 0.000000 0
0.000000 0.000000 0
0.000000 0.000000 0
0.000000 0.000000 0
0.000000 0.000000 0
0.000000 0.000000 0
0.000000 -0.000150 0
0.000000 0.000000 0
-0.000369 0.000369 0
-0.000861 0.000450 0
-0.001376 0.000461 0
-0.001888 0.000452 0
-0.002386 0.000438 0
-0.002868 0.000422 0
-0.003329 0.000405 0
-0.003768 0.000385 0
-0.004182 0.000363 0
-0.004568 0.000339 0
-0.004924 0.000313 0
-0.005246 0.000284 0
-0.005533 0.000253 0
-0.005781 0.000221 0
-0.005990 0.000187 0
-0.006158 0.000152 0
-0.006284 0.000117 0
-0.006365 0.000080 0
-0.006403 0.000043 0
-0.006396 0.000005 0
-0.006345 -0.000032 0
-0.006250 -0.000069 0
-0.006110 -0.000106 0
-0.005928 -0.000142 0
-0.005703 -0.000177 0
-0.005438 -0.000211 0
-0.005133 -0.000244 0
-0.004790 -0.000276 0
-0.004411 -0.000306 0
-0.003998 -0.000334 0
-0.003553 -0.000361 0
-0.003078 -0.000386 0
-0.002574 -0.000409 0
-0.002045 -0.000430 0
-0.001493 -0.000450 0
-0.000919 -0.000467 0
-0.000327 -0.000483 0
0.000281 -0.000496 0
0.000904 -0.000508 0
0.001539 -0.000518 0
0.002183 -0.000526 0
0.002836 -0.000532 0
0.003494 -0.000537 0
0.004156 -0.000540 0
0.004820 -0.000541 0
0.005484 -0.000542 0
0.006148 -0.000540 0
0.006809 -0.000538 0
0.007465 -0.000535 0
0.008117 -0.000530 0
0.008762 -0.000525 0
0.009400 -0.000519 0
0.010029 -0.000512 0
0.010649 -0.000504 0
0.011259 -0.000495 0
0.011859 -0.000487 0
0.012447 -0.000477 0
0.013024 -0.000468 0
0.013589 -0.000458 0
0.014141 -0.000447 0
0.014681 -0.000437 0
0.015207 -0.000426 0
0.015721 -0.000415 0
0.016222 -0.000405 0
0.016709 -0.000394 0
0.017184 -0.000383 0
0.017645 -0.000372 0
0.018094 -0.000362 0
0.018529 -0.000351 0
0.018952 -0.000341 0
0.019362 -0.000330 0
0.019760 -0.000320 0
0.020145 -0.000310 0
0.020519 -0.000300 0
0.020880 -0.000291 0
0.021231 -0.000281 0
0.021570 -0.000272 0
0.021898 -0.000263 0
0.022215 -0.000254 0
0.022522 -0.000246 0
0.022819 -0.000238 0
0.023106 -0.000230 0
0.023384 -0.000222 0
0.023652 -0.000214 0
0.023910 -0.000207 0
0.024161 -0.000200 0
0.024402 -0.000193 0
0.024636 -0.000186 0
0.024861 -0.000180 0
0.025079 -0.000174 0
0.025289 -0.000167 0
0.025492 -0.000162 0
0.025687 -0.000156 0
0.025877 -0.000150 0
0.026059 -0.000145 0
0.026235 -0.000140 0
0.026405 -0.000135 0
0.026569 -0.000130 0
0.026728 -0.000126 0
0.026881 -0.000121 0
0.027028 -0.000117 0
0.027171 -0.000113 0
0.027308 -0.000109 0
0.027441 -0.000105 0
0.027569 -0.000101 0
0.027693 -0.000098 0
0.027812 -0.000094 0
0.027927 -0.000091 0
0.028038 -0.000088 0
0.028146 -0.000085 0
0.028249 -0.000082 0
0.028349 -0.000079 0
0.028446 -0.000076 0
0.028539 -0.000074 0
0.028629 -0.000071 0
0.028716 -0.000069 0
0.028799 -0.000066 0
0.028880 -0.000064 0
0.028959 -0.000062 0
0.029034 -0.000059 0
0.029107 -0.000057 0
0.029177 -0.000055 0
0.029245 -0.000053 0
0.029311 -0.000052 0
0.029374 -0.000050 0
0.029435 -0.000048 0
0.029494 -0.000046 0
0.029551 -0.000045 0
0.029606 -0.000043 0
0.029660 -0.000042 0
0.029711 -0.000040 0
0.029761 -0.000039 0
0.029808 -0.000038 0
0.029855 -0.000036 0
0.029900 -0.000035 0
0.029943 -0.000034 0
0.029984 -0.000033 0
0.030025 -0.000032 0
0.030064 -0.000031 0
0.030101 -0.000029 0
0.030138 -0.000028 0
0.030173 -0.000028 0
0.030207 -0.000027 0
0.030240 -0.000026 0
0.030271 -0.000025 0
0.030302 -0.000024 0
0.030331 -0.000023 0
0.030360 -0.000022 0
0.030388 -0.000022 0
0.030414 -0.000021 0
0.030440 -0.000020 0
0.030465 -0.000019 0
0.030489 -0.000019 0
0.030512 -0.000018 0
0.030535 -0.000018 0
0.030557 -0.000017 0
0.030578 -0.000016 0
0.030598 -0.000016 0
0.030618 -0.000015 0
0.030637 -0.000015 0
0.030655 -0.000014 0
0.030673 -0.000014 0
0.030690 -0.000013 0
0.030706 -0.000013 0
0.030722 -0.000012 0
0.030738 -0.000012 0
0.030753 -0.000012 0
0.030767 -0.000011 0
0.030781 -0.000011 0
0.030795 -0.000010 0
0.030808 -0.000010 0
0.030820 -0.000010 0
0.030832 -0.000009 0
0.030844 -0.000009 0
0.030856 -0.000009 0
0.030867 -0.000009 0
0.030877 -0.000008 0
0.030888 -0.000008 0
0.030898 -0.000008 0
0.030907 -0.000007 0
0.030917 -0.000007 0
0.030926 -0.000007 0
0.030934 -0.000007 0
0.030943 -0.000006 0
0.030951 -0.000006 0
0.030959 -0.000006 0
0.030966 -0.000006 0
0.030974 -0.000006 0
0.030981 -0.000005 0
0.030988 -0.000005 0
0.030994 -0.000005 0
0.031001 -0.000005 0
0.031007 -0.000005 0
0.031013 -0.000005 0
0.031019 -0.000004 0
0.031024 -0.000004 0
0.031030 -0.000004 0
0.031035 -0.000004 0
0.031040 -0.000004 0
0.031045 -0.000004 0
0.031050 -0.000004 0
0.031054 -0.000004 0
0.031059 -0.000003 0
0.031063 -0.000003 0
0.031067 -0.000003 0
0.031071 -0.000003 0
0.031075 -0.000003 0
0.031079 -0.000003 0
0.031082 -0.000003 0
0.031086 -0.000003 0
0.031089 -0.000003 0
0.031093 -0.000002 0
0.031096 -0.000002 0
0.031099 -0.000002 0
0.031102 -0.000002 0
0.031105 -0.000002 0
0.031107 -0.000002 0
0.031110 -0.000002 0
0.031113 -0.000002 0
0.031115 -0.000002 0
0.031118 -0.000002 0
0.031120 -0.000002 0
0.031122 -0.000002 0
0.031124 -0.000002 0
0.031127 -0.000002 0
0.031129 -0.000002 0
0.031131 -0.000001 0
0.031132 -0.000001 0
0.031134 -0.000001 0
0.031136 -0.000001 0
0.031138 -0.000001 0
0.031140 -0.000001 0
0.031141 -0.000001 0
0.031143 -0.000001 0
0.031144 -0.000001 0
0.031146 -0.000001 0
0.031147 -0.000001 0
0.031148 -0.000001 0
0.031150 -0.000001 0
0.031151 -0.000001 0
0.031152 -0.000001 0
0.031154 -0.000001 0
0.031155 -0.000001 0
0.031156 -0.000001 0
0.031157 -0.000001 0
0.031158 -0.000001 0
0.031159 -0.000001 0
0.031160 -0.000001 0
0.031161 -0.000001 0
0.031162 -0.000001 0
0.031163 -0.000001 0
0.031164 -0.000001 0
0.031164 -0.000001 0
0.031165 -0.000001 0
0.031166 -0.000001 0
0.031167 -0.000001 0
0.031167 -0.000001 0
0.031168 -0.000000 0
0.031169 -0.000000 0
0.031169 -0.000000 0
0.031170 -0.000000 0
0.031171 -0.000000 0
0.031171 -0.000000 0
0.031172 -0.000000 0
0.031172 -0.000000 0
0.031173 -0.000000 0
0.031173 -0.000000 0
0.031174 -0.000000 0
0.031174 -0.000000 0
0.031175 -0.000000 0
0.031175 -0.000000 0
0.031176 -0.000000 0
0.031176 -0.000000 0
0.031177 -0.000000 0
0.031177 -0.000000 0
0.031177 -0.000000 0
0.031178 -0.000000 0
0.031178 -0.000000 0
0.031178 -0.000000 0
0.031179 -0.000000 0
0.031179 -0.000000 0
0.031179 -0.000000 0
0.031180 -0.000000 0
0.031180 -0.000000 0
0.031180 -0.000000 0
0.031181 -0.000000 0
0.031181 -0.000000 0
0.031181 -0.000000 0
0.031181 -0.000000 0
0.031182 -0.000000 0
0.031182 -0.000000 0
0.031182 -0.000000 0
0.031182 -0.000000 0
0.031182 -0.000000 0
0.031183 -0.000000 0
0.031183 -0.000000 0
0.031183 -0.000000 0
0.031183 -0.000000 0
0.031183 -0.000000 0
0.031183 -0.000000 0
0.031184 -0.000000 0
0.031184 -0.000000 0
0.031184 -0.000000 0
0.031184 -0.000000 0
0.031184 -0.000000 0
0.031184 -0.000000 0
0.031184 -0.000000 0
0.031184 -0.000000 0
0.031185 -0.000000 0
0.031185 -0.000000 0
0.031185 -0.000000 0
0.031185 -0.000000 0
0.031185 -0.000000 0
0.031185 -0.000000 0
0.031185 -0.000000 0
0.031185 -0.000000 0
0.031185 -0.000000 0
0.031185 -0.000000 0
0.031185 -0.000000 0
0.031185 -0.000000 0
0.031185 -0.000000 0
0.031186 -0.000000 0
0.031186 -0.000000 0
0.031186 -0.000000 0
0.031186 0.000000 0
0.031186 0.000000 0
0.031186 0.000000 0
0.031186 0.000000 0
0.031186 0.000000 0
0.031186 0.000000 0
0.031186 0.000000 0
0.031186 0.000000 0
0.031186 0.000000 0
0.031186 0.000000 0
0.031186 0.000000 0
0.031186 0.000000 0
0.031186 0.000000 0
0.031186 0.000000 0
0.031186 0.000000 0
0.031186 0.000000 0
0.031186 0.000000 0
0.031186 0.000000 0
0.031186 0.000000 0
0.031186 0.000000 0
0.031186 0.000000 0
0.031185 0.000000 0
0.031185 0.000000 0
0.031185 0.000000 0
0.031185 0.000000 0
0.031185 0.000000 0
0.031185 0.000000 0
0.031185 0.000000 0
0.031185 0.000000 0
0.031185 0.000000 0
0.031185 0.000000 0
0.031185 0.000000 0
0.031185 0.000000 0
0.031185 0.000000 0
0.031184 0.000000 0
0.031184 0.000000 0
0.031184 0.000000 0
0.031184 0.000000 0
0.031184 0.000000 0
0.031184 0.000000 0
0.031184 0.000000 0
0.031184 0.000000 0
0.031183 0.000000 0
0.031183 0.000000 0
0.031183 0.000000 0
0.031183 0.000000 0
0.031183 0.000000 0
0.031183 0.000000 0
0.031182 0.000000 0
0.031182 0.000000 0
0.031182 0.000000 0
0.031182 0.000000 0
0.031182 0.000000 0
0.031181 0.000000 0
0.031181 0.000000 0
0.031181 0.000000 0
0.031181 0.000000 0
0.031180 0.000000 0
0.031180 0.000000 0
0.031180 0.000000 0
0.031180 0.000000 0
0.031179 0.000000 0
0.031179 0.000000 0
0.031179 0.000000 0
0.031179 0.000000 0
0.031178 0.000000 0
0.031178 0.000000 0
0.031178 0.000000 0
0.031178 0.000000 0
0.031177 0.000000 0
0.031177 0.000000 0
0.031177 0.000000 0
0.031176 0.000000 0
0.031176 0.000000 0
0.031176 0.000000 0
0.031175 0.000000 0
0.031175 0.000000 0
0.031175 0.000000 0
0.031175 0.000000 0
0.031174 0.000000 0
0.031174 0.000000 0
0.031174 0.000000 0
0.031173 0.000000 0
0.031173 0.000000 0
0.031173 0.000000 0
0.031173 0.000000 0
0.031173 0.000000 0
0.031173 0.000000 0
0.031172 0.000000 0
0.031172 0.000000 0
0.031172 0.000000 0
0.031172 -0.000000 0
0.031172 -0.000000 0
0.031172 -0.000000 0
0.031173 -0.000000 0
0.031173 -0.000000 0
0.031173 -0.000000 0
0.031173 -0.000000 0
0.031174 -0.000000 0